 Q-Chem 6.3, Q-Chem, Inc., Pleasanton, CA (2025)
 Q-Chem 6.3.0 for Intel X86 EM64T Linux

User input:
--------------------------------------------------------------
$rem
JOBTYPE = SP
BASIS = aug-cc-pVDZ
CCMAN2 = 1
CC_DO_DYSON = 1
CC_TRANS_PROP = 1
METHOD = EOM-CCSD
PRINT_GENERAL_BASIS = 1
PURECART = 111
IP_STATES = [0,0,0,1,0,0,0,0]
SCF_CONVERGENCE = 5
$end

$comment
Title
$end

$molecule
-1 2
O       1.35 0 0
O       0 0 0
$end
--------------------------------------------------------------

             Standard Nuclear Orientation (Angstroms)
    I     Atom           X                Y                Z
 ----------------------------------------------------------------
    1      O       0.0000000000     0.0000000000     0.6750000000
    2      O       0.0000000000     0.0000000000    -0.6750000000
 ----------------------------------------------------------------

    8    -149.6119285124      8.51e-06  Convergence criterion met
 Total energy =  -149.61192851
 CCSD total energy          = -150.01559562
        Solving for EOMIP-CCSD B3g transitions.
 EOMIP transition 1/B3g
 Total energy = -149.97765913 a.u.  Excitation energy = 1.0323 eV.
 Reference -- EOM-IP-CCSD state  1/B3g   transition

             Orbital Energies (a.u.) and Symmetries
 --------------------------------------------------------------

 Alpha MOs, Unrestricted
 -- Occupied --
-20.335 -20.334  -1.190  -0.821  -0.393  -0.338  -0.317  -0.187
  1 Ag    1 B1u   2 Ag    2 B1u   1 B3u   1 B2u   3 Ag    1 B2g
 -0.126
  1 B3g

 Beta MOs, Unrestricted
 -- Occupied --
-20.307 -20.306  -1.111  -0.710  -0.309  -0.289  -0.143  -0.089
  1 Ag    1 B1u   2 Ag    2 B1u   1 B2u   3 Ag    1 B3u   1 B3g

          Ground-State Mulliken Net Atomic Charges

     Atom                 Charge (a.u.)    Spin (a.u.)
  --------------------------------------------------------
      1 O                    -0.500000       0.500000
      2 O                    -0.500000       0.500000
  --------------------------------------------------------
  Sum of atomic charges =    -1.000000

                    Cartesian Multipole Moments
 -----------------------------------------------------------------
    Charge (ESU x 10^10)
                -4.8032
    Dipole Moment (Debye)
         X      -0.0000      Y      -0.0000      Z       0.0000
       Tot       0.0000
    Quadrupole Moments (Debye-Ang)
        XX     -13.0253     XY      -0.0000     YY     -13.9652
        XZ      -0.0000     YZ      -0.0000     ZZ     -16.0441

 Total job time:  27.92s(wall), 27.81s(cpu)
        *  Thank you very much for using Q-Chem.  Have a nice day.  *
