 Q-Chem 5.4, Q-Chem, Inc., Pleasanton, CA (2021)
 Q-Chem 5.4.1 for Intel X86 EM64T Linux

User input:
--------------------------------------------------------------
$molecule
-1 1
C       0.0000000000    0.0000000000    0.6253678506
N       0.0000000000    0.0000000000   -0.5363563199
$end

$rem
BASIS  =  aug-cc-pVTZ
CC_DO_DYSON  =  1
CC_MEMORY  =  10000
CC_TRANS_PROP  =  1
EOM_IP_ALPHA  =  [1,0,0,0]
GUI  =  2
METHOD  =  EOM-CCSD
PRINT_GENERAL_BASIS  =  1
SCF_CONVERGENCE  =  8
$end

--------------------------------------------------------------

             Standard Nuclear Orientation (Angstroms)
    I     Atom           X                Y                Z
 ----------------------------------------------------------------
    1      C       0.0000000000     0.0000000000     0.6255437841
    2      N       0.0000000000     0.0000000000    -0.5361803864
 ----------------------------------------------------------------

   11     -92.3430505868      8.55e-09  Convergence criterion met
 Total energy in the final basis set =      -92.3430505868
 CCSD total energy          = -92.69239943
        Solving for EOMIP-CCSD A1 transitions.
 EOMIP transition 1/A1
 Total energy = -92.54624908 a.u.  Excitation energy = 3.9770 eV.
 Reference -- EOM-IP-CCSD state  1/A1   transition

             Orbital Energies (a.u.) and Symmetries
 --------------------------------------------------------------

 Alpha MOs, Restricted
 -- Occupied --
-15.283 -10.964  -0.932  -0.339  -0.197  -0.197  -0.192
  1 A1    2 A1    3 A1    4 A1    1 B1    1 B2    5 A1

 Beta MOs, Restricted
 -- Occupied --
-15.283 -10.964  -0.932  -0.339  -0.197  -0.197  -0.192
  1 A1    2 A1    3 A1    4 A1    1 B1    1 B2    5 A1

          Ground-State Mulliken Net Atomic Charges

     Atom                 Charge (a.u.)
  ----------------------------------------
      1 C                    -0.696573
      2 N                    -0.303427
  ----------------------------------------
  Sum of atomic charges =    -1.000000

                    Cartesian Multipole Moments
 -----------------------------------------------------------------
    Charge (ESU x 10^10)
                -4.8032
    Dipole Moment (Debye)
         X       0.0000      Y       0.0000      Z      -0.4285
       Tot       0.4285
    Quadrupole Moments (Debye-Ang)
        XX     -14.9229     XY       0.0000     YY     -14.9229
        XZ      -0.0000     YZ      -0.0000     ZZ     -19.4495

 Total job time:  15.72s(wall), 39.01s(cpu)
        *  Thank you very much for using Q-Chem.  Have a nice day.  *
