 Q-Chem 6.3, Q-Chem, Inc., Pleasanton, CA (2025)
 Q-Chem 6.3.0 for Intel X86 EM64T Linux

User input:
--------------------------------------------------------------
$molecule
-1 1
Cu   0   0   0
O   0    0   1.67
$end

$rem
BASIS  =  gen
CC_DO_DYSON = 1
CC_TRANS_PROP = 1
EOM_DAVIDSON_CONVERGENCE = 6
CC_MEMORY  =  14000
MEM_TOTAL = 15000
PRINT_GENERAL_BASIS = 1
ECP  =  gen
IP_STATES  =  [1,0,1,1]
GUI  =  2
JOB_TYPE  =  SP
METHOD  =  EOM-CCSD
$end

$basis
Cu     0
S   8   1.00
560.0880000              0.0006370
56.6486000             -0.0097350
35.4258000              0.0657930
11.0546000             -0.4150350
2.3068200              0.7466110
0.9514290              0.4621730
0.1451840              0.0159830
0.0503250             -0.0027670
S   8   1.00
560.0880000             -0.0001360
56.6486000              0.0014010
35.4258000             -0.0131740
11.0546000              0.0956950
2.3068200             -0.2118740
0.9514290             -0.2359440
0.1451840              0.5081150
0.0503250              0.6215190
S   1   1.00
0.0503250              1.0000000
S   8   1.00
560.0880000             -0.0003330
56.6486000              0.0059300
35.4258000             -0.0325490
11.0546000              0.2110710
2.3068200             -0.7305560
0.9514290              0.1772420
0.1451840              1.7148730
0.0503250             -1.6045730
S   1   1.00
0.0174000              1.0000000
P   7   1.00
70.9739000              0.0036820
17.8510000             -0.0821280
4.2467900              0.3753790
1.8776000              0.5084090
0.7933350              0.2390950
0.1934760              0.0158500
0.0573930             -0.0025270
P   7   1.00
70.9739000             -0.0009100
17.8510000              0.0299140
4.2467900             -0.1660940
1.8776000             -0.2780000
0.7933350              0.1575840
0.1934760              0.8304880
0.0573930              0.1658690
P   7   1.00
70.9739000             -0.0006280
17.8510000              0.0165630
4.2467900             -0.0845720
1.8776000             -0.1412830
0.7933350             -0.0035710
0.1934760              0.5190050
0.0573930              0.5924750
P   1   1.00
0.0573930              1.0000000
P   1   1.00
0.0170000              1.0000000
D   6   1.00
60.3804000              0.0175640
19.1121000              0.0991340
6.9528800              0.2711710
2.6099400              0.4061800
0.9225670              0.3814270
0.2836420              0.2006260
D   6   1.00
60.3804000             -0.0222860
19.1121000             -0.1282740
6.9528800             -0.3627970
2.6099400             -0.3257220
0.9225670              0.3270870
0.2836420              0.6568090
D   1   1.00
0.2836420              1.0000000
D   1   1.00
0.0872000              1.0000000
F   1   1.00
2.7482000              1.0000000
F   1   1.00
0.9066000              1.0000000
****

O     0
S   9   1.00
1.172000D+04           7.100000D-04
1.759000D+03           5.470000D-03
4.008000D+02           2.783700D-02
1.137000D+02           1.048000D-01
3.703000D+01           2.830620D-01
1.327000D+01           4.487190D-01
5.025000D+00           2.709520D-01
1.013000D+00           1.545800D-02
3.023000D-01          -2.585000D-03
S   9   1.00
1.172000D+04          -1.600000D-04
1.759000D+03          -1.263000D-03
4.008000D+02          -6.267000D-03
1.137000D+02          -2.571600D-02
3.703000D+01          -7.092400D-02
1.327000D+01          -1.654110D-01
5.025000D+00          -1.169550D-01
1.013000D+00           5.573680D-01
3.023000D-01           5.727590D-01
S   1   1.00
3.023000D-01           1.000000D+00
S   1   1.00
0.0789600              1.0000000
P   4   1.00
1.770000D+01           4.301800D-02
3.854000D+00           2.289130D-01
1.046000D+00           5.087280D-01
2.753000D-01           4.605310D-01
P   1   1.00
2.753000D-01           1.000000D+00
P   1   1.00
0.0685600              1.0000000
D   1   1.00
1.185000D+00           1.0000000
D   1   1.00
0.3320000              1.0000000
****
$end

$ecp
CU     0
CU-ECP     4     10
g potential
1
2      1.0000000              0.0000000
s-g potential
2
2     30.1105430            355.7505120
2     13.0763100             70.9309060
p-g potential
4
2     32.6926140             77.9699310
2     32.7703390            155.9274480
2     13.7510670             18.0211320
2     13.3221660             36.0943720
d-g potential
4
2     38.9965110            -12.3434100
2     39.5397880            -18.2733620
2     12.2875110             -0.9847050
2     11.4593000             -1.3187470
f-g potential
2
2      6.1901020             -0.2272640
2      8.1187800             -0.4687730
****
$end

--------------------------------------------------------------

             Standard Nuclear Orientation (Angstroms)
    I     Atom           X                Y                Z
 ----------------------------------------------------------------
    1      Cu      0.0000000000     0.0000000000    -0.3610810811
    2      O       0.0000000000     0.0000000000     1.3089189189
 ----------------------------------------------------------------

   18    -270.9309329418      5.53e-09  Convergence criterion met
 Total energy =  -270.93093294
 CCSD total energy          = -271.61985747
        Solving for EOMIP-CCSD A1 transitions.
 EOMIP transition 1/A1
 Total energy = -271.52885906 a.u.  Excitation energy = 2.4762 eV.
        Solving for EOMIP-CCSD B1 transitions.
 EOMIP transition 1/B1
 Total energy = -271.55499052 a.u.  Excitation energy = 1.7651 eV.
        Solving for EOMIP-CCSD B2 transitions.
 EOMIP transition 1/B2
 Total energy = -271.55499052 a.u.  Excitation energy = 1.7651 eV.
 Reference -- EOM-IP-CCSD state  1/A1   transition
 Reference -- EOM-IP-CCSD state  1/B1   transition
 Reference -- EOM-IP-CCSD state  1/B2   transition

             Orbital Energies (a.u.) and Symmetries
 --------------------------------------------------------------

 Alpha MOs, Restricted
 -- Occupied --
-20.241  -5.054  -3.257  -3.247  -3.247  -0.884  -0.330  -0.330
  1 A1    2 A1    3 A1    1 B1    1 B2    4 A1    2 B1    2 B2
 -0.298  -0.298  -0.250  -0.120  -0.120  -0.084
  1 A2    5 A1    6 A1    3 B1    3 B2    7 A1

 Beta MOs, Restricted
 -- Occupied --
-20.241  -5.054  -3.257  -3.247  -3.247  -0.884  -0.330  -0.330
  1 A1    2 A1    3 A1    1 B1    1 B2    4 A1    2 B1    2 B2
 -0.298  -0.298  -0.250  -0.120  -0.120  -0.084
  1 A2    5 A1    6 A1    3 B1    3 B2    7 A1

          Ground-State Mulliken Net Atomic Charges

     Atom                 Charge (a.u.)
  ----------------------------------------
      1 Cu                    0.037345
      2 O                    -1.037345
  ----------------------------------------
  Sum of atomic charges =    -1.000000

                    Cartesian Multipole Moments
 -----------------------------------------------------------------
    Charge (ESU x 10^10)
                -4.8032
    Dipole Moment (Debye)
         X      -0.0000      Y      -0.0000      Z      -6.6156
       Tot       6.6156
    Quadrupole Moments (Debye-Ang)
        XX     -23.9108     XY      -0.0000     YY     -23.9108
        XZ       0.0000     YZ       0.0000     ZZ     -29.9900

 Total job time:  59.92s(wall), 53.10s(cpu)
        *  Thank you very much for using Q-Chem.  Have a nice day.  *
